s 0.030383233 _42_ RTR  --- 0 message 32 [0 0 0 0] ------- [42:255 -1:255 32 0] 
r 0.031283233 _41_ RTR  --- 0 message 32 [0 ffffffff 2a 800] ------- [42:255 -1:255 32 0] 
r 0.031283233 _40_ RTR  --- 0 message 32 [0 ffffffff 2a 800] ------- [42:255 -1:255 32 0] 
r 0.031283233 _39_ RTR  --- 0 message 32 [0 ffffffff 2a 800] ------- [42:255 -1:255 32 0] 
r 0.031283233 _38_ RTR  --- 0 message 32 [0 ffffffff 2a 800] ------- [42:255 -1:255 32 0] 
r 0.031283233 _37_ RTR  --- 0 message 32 [0 ffffffff 2a 800] ------- [42:255 -1:255 32 0] 
r 0.031283233 _36_ RTR  --- 0 message 32 [0 ffffffff 2a 800] ------- [42:255 -1:255 32 0] 
r 0.031283233 _35_ RTR  --- 0 message 32 [0 ffffffff 2a 800] ------- [42:255 -1:255 32 0] 
r 0.031283233 _34_ RTR  --- 0 message 32 [0 ffffffff 2a 800] ------- [42:255 -1:255 32 0] 
r 0.031283233 _33_ RTR  --- 0 message 32 [0 ffffffff 2a 800] ------- [42:255 -1:255 32 0] 
r 0.031283233 _32_ RTR  --- 0 message 32 [0 ffffffff 2a 800] ------- [42:255 -1:255 32 0] 
r 0.031283233 _31_ RTR  --- 0 message 32 [0 ffffffff 2a 800] ------- [42:255 -1:255 32 0] 
r 0.031283233 _30_ RTR  --- 0 message 32 [0 ffffffff 2a 800] ------- [42:255 -1:255 32 0] 
r 0.031283233 _29_ RTR  --- 0 message 32 [0 ffffffff 2a 800] ------- [42:255 -1:255 32 0] 
r 0.031283233 _28_ RTR  --- 0 message 32 [0 ffffffff 2a 800] ------- [42:255 -1:255 32 0] 
r 0.031283233 _27_ RTR  --- 0 message 32 [0 ffffffff 2a 800] ------- [42:255 -1:255 32 0] 
r 0.031283233 _26_ RTR  --- 0 message 32 [0 ffffffff 2a 800] ------- [42:255 -1:255 32 0] 
r 0.031283233 _25_ RTR  --- 0 message 32 [0 ffffffff 2a 800] ------- [42:255 -1:255 32 0] 
r 0.031283233 _24_ RTR  --- 0 message 32 [0 ffffffff 2a 800] ------- [42:255 -1:255 32 0] 
r 0.031283233 _23_ RTR  --- 0 message 32 [0 ffffffff 2a 800] ------- [42:255 -1:255 32 0] 
r 0.031283233 _22_ RTR  --- 0 message 32 [0 ffffffff 2a 800] ------- [42:255 -1:255 32 0] 
r 0.031283233 _21_ RTR  --- 0 message 32 [0 ffffffff 2a 800] ------- [42:255 -1:255 32 0] 
r 0.031283233 _20_ RTR  --- 0 message 32 [0 ffffffff 2a 800] ------- [42:255 -1:255 32 0] 
r 0.031283233 _19_ RTR  --- 0 message 32 [0 ffffffff 2a 800] ------- [42:255 -1:255 32 0] 
r 0.031283233 _18_ RTR  --- 0 message 32 [0 ffffffff 2a 800] ------- [42:255 -1:255 32 0] 
r 0.031283233 _17_ RTR  --- 0 message 32 [0 ffffffff 2a 800] ------- [42:255 -1:255 32 0] 
r 0.031283233 _16_ RTR  --- 0 message 32 [0 ffffffff 2a 800] ------- [42:255 -1:255 32 0] 
r 0.031283233 _15_ RTR  --- 0 message 32 [0 ffffffff 2a 800] ------- [42:255 -1:255 32 0] 
r 0.031283233 _14_ RTR  --- 0 message 32 [0 ffffffff 2a 800] ------- [42:255 -1:255 32 0] 
r 0.031283233 _13_ RTR  --- 0 message 32 [0 ffffffff 2a 800] ------- [42:255 -1:255 32 0] 
r 0.031283233 _12_ RTR  --- 0 message 32 [0 ffffffff 2a 800] ------- [42:255 -1:255 32 0] 
r 0.031283233 _11_ RTR  --- 0 message 32 [0 ffffffff 2a 800] ------- [42:255 -1:255 32 0] 
r 0.031283233 _10_ RTR  --- 0 message 32 [0 ffffffff 2a 800] ------- [42:255 -1:255 32 0] 
r 0.031283233 _9_ RTR  --- 0 message 32 [0 ffffffff 2a 800] ------- [42:255 -1:255 32 0] 
r 0.031283233 _8_ RTR  --- 0 message 32 [0 ffffffff 2a 800] ------- [42:255 -1:255 32 0] 
r 0.031283233 _7_ RTR  --- 0 message 32 [0 ffffffff 2a 800] ------- [42:255 -1:255 32 0] 
r 0.031283233 _6_ RTR  --- 0 message 32 [0 ffffffff 2a 800] ------- [42:255 -1:255 32 0] 
r 0.031283233 _43_ RTR  --- 0 message 32 [0 ffffffff 2a 800] ------- [42:255 -1:255 32 0] 
r 0.031283233 _44_ RTR  --- 0 message 32 [0 ffffffff 2a 800] ------- [42:255 -1:255 32 0] 
r 0.031283233 _45_ RTR  --- 0 message 32 [0 ffffffff 2a 800] ------- [42:255 -1:255 32 0] 
r 0.031283233 _46_ RTR  --- 0 message 32 [0 ffffffff 2a 800] ------- [42:255 -1:255 32 0] 
r 0.031283233 _47_ RTR  --- 0 message 32 [0 ffffffff 2a 800] ------- [42:255 -1:255 32 0] 
r 0.031283233 _48_ RTR  --- 0 message 32 [0 ffffffff 2a 800] ------- [42:255 -1:255 32 0] 
r 0.031283233 _49_ RTR  --- 0 message 32 [0 ffffffff 2a 800] ------- [42:255 -1:255 32 0] 
r 0.031283756 _5_ RTR  --- 0 message 32 [0 ffffffff 2a 800] ------- [42:255 -1:255 32 0] 
s 0.033957718 _0_ RTR  --- 1 message 32 [0 0 0 0] ------- [0:255 -1:255 32 0] 
s 0.095057277 _11_ RTR  --- 2 message 32 [0 0 0 0] ------- [11:255 -1:255 32 0] 
r 0.095897277 _10_ RTR  --- 2 message 32 [0 ffffffff b 800] ------- [11:255 -1:255 32 0] 
r 0.095897277 _9_ RTR  --- 2 message 32 [0 ffffffff b 800] ------- [11:255 -1:255 32 0] 
r 0.095897277 _8_ RTR  --- 2 message 32 [0 ffffffff b 800] ------- [11:255 -1:255 32 0] 
r 0.095897277 _7_ RTR  --- 2 message 32 [0 ffffffff b 800] ------- [11:255 -1:255 32 0] 
r 0.095897277 _6_ RTR  --- 2 message 32 [0 ffffffff b 800] ------- [11:255 -1:255 32 0] 
r 0.095897277 _12_ RTR  --- 2 message 32 [0 ffffffff b 800] ------- [11:255 -1:255 32 0] 
r 0.095897277 _13_ RTR  --- 2 message 32 [0 ffffffff b 800] ------- [11:255 -1:255 32 0] 
r 0.095897277 _14_ RTR  --- 2 message 32 [0 ffffffff b 800] ------- [11:255 -1:255 32 0] 
r 0.095897277 _15_ RTR  --- 2 message 32 [0 ffffffff b 800] ------- [11:255 -1:255 32 0] 
r 0.095897277 _16_ RTR  --- 2 message 32 [0 ffffffff b 800] ------- [11:255 -1:255 32 0] 
r 0.095897277 _17_ RTR  --- 2 message 32 [0 ffffffff b 800] ------- [11:255 -1:255 32 0] 
r 0.095897277 _18_ RTR  --- 2 message 32 [0 ffffffff b 800] ------- [11:255 -1:255 32 0] 
r 0.095897277 _19_ RTR  --- 2 message 32 [0 ffffffff b 800] ------- [11:255 -1:255 32 0] 
r 0.095897277 _20_ RTR  --- 2 message 32 [0 ffffffff b 800] ------- [11:255 -1:255 32 0] 
r 0.095897277 _21_ RTR  --- 2 message 32 [0 ffffffff b 800] ------- [11:255 -1:255 32 0] 
r 0.095897277 _22_ RTR  --- 2 message 32 [0 ffffffff b 800] ------- [11:255 -1:255 32 0] 
r 0.095897277 _23_ RTR  --- 2 message 32 [0 ffffffff b 800] ------- [11:255 -1:255 32 0] 
r 0.095897277 _24_ RTR  --- 2 message 32 [0 ffffffff b 800] ------- [11:255 -1:255 32 0] 
r 0.095897277 _25_ RTR  --- 2 message 32 [0 ffffffff b 800] ------- [11:255 -1:255 32 0] 
r 0.095897277 _26_ RTR  --- 2 message 32 [0 ffffffff b 800] ------- [11:255 -1:255 32 0] 
r 0.095897277 _27_ RTR  --- 2 message 32 [0 ffffffff b 800] ------- [11:255 -1:255 32 0] 
r 0.095897277 _28_ RTR  --- 2 message 32 [0 ffffffff b 800] ------- [11:255 -1:255 32 0] 
r 0.095897277 _29_ RTR  --- 2 message 32 [0 ffffffff b 800] ------- [11:255 -1:255 32 0] 
r 0.095897277 _30_ RTR  --- 2 message 32 [0 ffffffff b 800] ------- [11:255 -1:255 32 0] 
r 0.095897277 _31_ RTR  --- 2 message 32 [0 ffffffff b 800] ------- [11:255 -1:255 32 0] 
r 0.095897277 _32_ RTR  --- 2 message 32 [0 ffffffff b 800] ------- [11:255 -1:255 32 0] 
r 0.095897277 _33_ RTR  --- 2 message 32 [0 ffffffff b 800] ------- [11:255 -1:255 32 0] 
r 0.095897277 _34_ RTR  --- 2 message 32 [0 ffffffff b 800] ------- [11:255 -1:255 32 0] 
r 0.095897277 _35_ RTR  --- 2 message 32 [0 ffffffff b 800] ------- [11:255 -1:255 32 0] 
r 0.095897277 _36_ RTR  --- 2 message 32 [0 ffffffff b 800] ------- [11:255 -1:255 32 0] 
r 0.095897277 _37_ RTR  --- 2 message 32 [0 ffffffff b 800] ------- [11:255 -1:255 32 0] 
r 0.095897277 _38_ RTR  --- 2 message 32 [0 ffffffff b 800] ------- [11:255 -1:255 32 0] 
r 0.095897277 _39_ RTR  --- 2 message 32 [0 ffffffff b 800] ------- [11:255 -1:255 32 0] 
r 0.095897277 _40_ RTR  --- 2 message 32 [0 ffffffff b 800] ------- [11:255 -1:255 32 0] 
r 0.095897277 _41_ RTR  --- 2 message 32 [0 ffffffff b 800] ------- [11:255 -1:255 32 0] 
r 0.095897277 _42_ RTR  --- 2 message 32 [0 ffffffff b 800] ------- [11:255 -1:255 32 0] 
r 0.095897277 _43_ RTR  --- 2 message 32 [0 ffffffff b 800] ------- [11:255 -1:255 32 0] 
r 0.095897277 _44_ RTR  --- 2 message 32 [0 ffffffff b 800] ------- [11:255 -1:255 32 0] 
r 0.095897277 _45_ RTR  --- 2 message 32 [0 ffffffff b 800] ------- [11:255 -1:255 32 0] 
r 0.095897277 _46_ RTR  --- 2 message 32 [0 ffffffff b 800] ------- [11:255 -1:255 32 0] 
r 0.095897277 _47_ RTR  --- 2 message 32 [0 ffffffff b 800] ------- [11:255 -1:255 32 0] 
r 0.095897277 _48_ RTR  --- 2 message 32 [0 ffffffff b 800] ------- [11:255 -1:255 32 0] 
r 0.095897277 _49_ RTR  --- 2 message 32 [0 ffffffff b 800] ------- [11:255 -1:255 32 0] 
r 0.095897801 _5_ RTR  --- 2 message 32 [0 ffffffff b 800] ------- [11:255 -1:255 32 0] 
s 0.118592534 _41_ RTR  --- 3 message 32 [0 0 0 0] ------- [41:255 -1:255 32 0] 
r 0.119712534 _40_ RTR  --- 3 message 32 [0 ffffffff 29 800] ------- [41:255 -1:255 32 0] 
r 0.119712534 _39_ RTR  --- 3 message 32 [0 ffffffff 29 800] ------- [41:255 -1:255 32 0] 
r 0.119712534 _38_ RTR  --- 3 message 32 [0 ffffffff 29 800] ------- [41:255 -1:255 32 0] 
r 0.119712534 _37_ RTR  --- 3 message 32 [0 ffffffff 29 800] ------- [41:255 -1:255 32 0] 
r 0.119712534 _36_ RTR  --- 3 message 32 [0 ffffffff 29 800] ------- [41:255 -1:255 32 0] 
r 0.119712534 _35_ RTR  --- 3 message 32 [0 ffffffff 29 800] ------- [41:255 -1:255 32 0] 
r 0.119712534 _34_ RTR  --- 3 message 32 [0 ffffffff 29 800] ------- [41:255 -1:255 32 0] 
r 0.119712534 _33_ RTR  --- 3 message 32 [0 ffffffff 29 800] ------- [41:255 -1:255 32 0] 
r 0.119712534 _32_ RTR  --- 3 message 32 [0 ffffffff 29 800] ------- [41:255 -1:255 32 0] 
r 0.119712534 _31_ RTR  --- 3 message 32 [0 ffffffff 29 800] ------- [41:255 -1:255 32 0] 
r 0.119712534 _30_ RTR  --- 3 message 32 [0 ffffffff 29 800] ------- [41:255 -1:255 32 0] 
r 0.119712534 _29_ RTR  --- 3 message 32 [0 ffffffff 29 800] ------- [41:255 -1:255 32 0] 
r 0.119712534 _28_ RTR  --- 3 message 32 [0 ffffffff 29 800] ------- [41:255 -1:255 32 0] 
r 0.119712534 _27_ RTR  --- 3 message 32 [0 ffffffff 29 800] ------- [41:255 -1:255 32 0] 
r 0.119712534 _26_ RTR  --- 3 message 32 [0 ffffffff 29 800] ------- [41:255 -1:255 32 0] 
r 0.119712534 _25_ RTR  --- 3 message 32 [0 ffffffff 29 800] ------- [41:255 -1:255 32 0] 
r 0.119712534 _24_ RTR  --- 3 message 32 [0 ffffffff 29 800] ------- [41:255 -1:255 32 0] 
r 0.119712534 _23_ RTR  --- 3 message 32 [0 ffffffff 29 800] ------- [41:255 -1:255 32 0] 
r 0.119712534 _22_ RTR  --- 3 message 32 [0 ffffffff 29 800] ------- [41:255 -1:255 32 0] 
r 0.119712534 _21_ RTR  --- 3 message 32 [0 ffffffff 29 800] ------- [41:255 -1:255 32 0] 
r 0.119712534 _20_ RTR  --- 3 message 32 [0 ffffffff 29 800] ------- [41:255 -1:255 32 0] 
r 0.119712534 _19_ RTR  --- 3 message 32 [0 ffffffff 29 800] ------- [41:255 -1:255 32 0] 
r 0.119712534 _18_ RTR  --- 3 message 32 [0 ffffffff 29 800] ------- [41:255 -1:255 32 0] 
r 0.119712534 _17_ RTR  --- 3 message 32 [0 ffffffff 29 800] ------- [41:255 -1:255 32 0] 
r 0.119712534 _16_ RTR  --- 3 message 32 [0 ffffffff 29 800] ------- [41:255 -1:255 32 0] 
r 0.119712534 _15_ RTR  --- 3 message 32 [0 ffffffff 29 800] ------- [41:255 -1:255 32 0] 
r 0.119712534 _14_ RTR  --- 3 message 32 [0 ffffffff 29 800] ------- [41:255 -1:255 32 0] 
r 0.119712534 _13_ RTR  --- 3 message 32 [0 ffffffff 29 800] ------- [41:255 -1:255 32 0] 
r 0.119712534 _12_ RTR  --- 3 message 32 [0 ffffffff 29 800] ------- [41:255 -1:255 32 0] 
r 0.119712534 _11_ RTR  --- 3 message 32 [0 ffffffff 29 800] ------- [41:255 -1:255 32 0] 
r 0.119712534 _10_ RTR  --- 3 message 32 [0 ffffffff 29 800] ------- [41:255 -1:255 32 0] 
r 0.119712534 _9_ RTR  --- 3 message 32 [0 ffffffff 29 800] ------- [41:255 -1:255 32 0] 
r 0.119712534 _8_ RTR  --- 3 message 32 [0 ffffffff 29 800] ------- [41:255 -1:255 32 0] 
r 0.119712534 _7_ RTR  --- 3 message 32 [0 ffffffff 29 800] ------- [41:255 -1:255 32 0] 
r 0.119712534 _6_ RTR  --- 3 message 32 [0 ffffffff 29 800] ------- [41:255 -1:255 32 0] 
r 0.119712534 _42_ RTR  --- 3 message 32 [0 ffffffff 29 800] ------- [41:255 -1:255 32 0] 
r 0.119712534 _43_ RTR  --- 3 message 32 [0 ffffffff 29 800] ------- [41:255 -1:255 32 0] 
r 0.119712534 _44_ RTR  --- 3 message 32 [0 ffffffff 29 800] ------- [41:255 -1:255 32 0] 
r 0.119712534 _45_ RTR  --- 3 message 32 [0 ffffffff 29 800] ------- [41:255 -1:255 32 0] 
r 0.119712534 _46_ RTR  --- 3 message 32 [0 ffffffff 29 800] ------- [41:255 -1:255 32 0] 
r 0.119712534 _47_ RTR  --- 3 message 32 [0 ffffffff 29 800] ------- [41:255 -1:255 32 0] 
r 0.119712534 _48_ RTR  --- 3 message 32 [0 ffffffff 29 800] ------- [41:255 -1:255 32 0] 
r 0.119712534 _49_ RTR  --- 3 message 32 [0 ffffffff 29 800] ------- [41:255 -1:255 32 0] 
r 0.119713057 _5_ RTR  --- 3 message 32 [0 ffffffff 29 800] ------- [41:255 -1:255 32 0] 
s 0.176746677 _1_ RTR  --- 4 message 32 [0 0 0 0] ------- [1:255 -1:255 32 0] 
r 0.177767471 _5_ RTR  --- 4 message 32 [0 ffffffff 1 800] ------- [1:255 -1:255 32 0] 
s 0.192489910 _17_ RTR  --- 5 message 32 [0 0 0 0] ------- [17:255 -1:255 32 0] 
r 0.193509910 _16_ RTR  --- 5 message 32 [0 ffffffff 11 800] ------- [17:255 -1:255 32 0] 
r 0.193509910 _15_ RTR  --- 5 message 32 [0 ffffffff 11 800] ------- [17:255 -1:255 32 0] 
r 0.193509910 _14_ RTR  --- 5 message 32 [0 ffffffff 11 800] ------- [17:255 -1:255 32 0] 
r 0.193509910 _13_ RTR  --- 5 message 32 [0 ffffffff 11 800] ------- [17:255 -1:255 32 0] 
r 0.193509910 _12_ RTR  --- 5 message 32 [0 ffffffff 11 800] ------- [17:255 -1:255 32 0] 
r 0.193509910 _11_ RTR  --- 5 message 32 [0 ffffffff 11 800] ------- [17:255 -1:255 32 0] 
r 0.193509910 _10_ RTR  --- 5 message 32 [0 ffffffff 11 800] ------- [17:255 -1:255 32 0] 
r 0.193509910 _9_ RTR  --- 5 message 32 [0 ffffffff 11 800] ------- [17:255 -1:255 32 0] 
r 0.193509910 _8_ RTR  --- 5 message 32 [0 ffffffff 11 800] ------- [17:255 -1:255 32 0] 
r 0.193509910 _7_ RTR  --- 5 message 32 [0 ffffffff 11 800] ------- [17:255 -1:255 32 0] 
r 0.193509910 _6_ RTR  --- 5 message 32 [0 ffffffff 11 800] ------- [17:255 -1:255 32 0] 
r 0.193509910 _18_ RTR  --- 5 message 32 [0 ffffffff 11 800] ------- [17:255 -1:255 32 0] 
r 0.193509910 _19_ RTR  --- 5 message 32 [0 ffffffff 11 800] ------- [17:255 -1:255 32 0] 
r 0.193509910 _20_ RTR  --- 5 message 32 [0 ffffffff 11 800] ------- [17:255 -1:255 32 0] 
r 0.193509910 _21_ RTR  --- 5 message 32 [0 ffffffff 11 800] ------- [17:255 -1:255 32 0] 
r 0.193509910 _22_ RTR  --- 5 message 32 [0 ffffffff 11 800] ------- [17:255 -1:255 32 0] 
r 0.193509910 _23_ RTR  --- 5 message 32 [0 ffffffff 11 800] ------- [17:255 -1:255 32 0] 
r 0.193509910 _24_ RTR  --- 5 message 32 [0 ffffffff 11 800] ------- [17:255 -1:255 32 0] 
r 0.193509910 _25_ RTR  --- 5 message 32 [0 ffffffff 11 800] ------- [17:255 -1:255 32 0] 
r 0.193509910 _26_ RTR  --- 5 message 32 [0 ffffffff 11 800] ------- [17:255 -1:255 32 0] 
r 0.193509910 _27_ RTR  --- 5 message 32 [0 ffffffff 11 800] ------- [17:255 -1:255 32 0] 
r 0.193509910 _28_ RTR  --- 5 message 32 [0 ffffffff 11 800] ------- [17:255 -1:255 32 0] 
r 0.193509910 _29_ RTR  --- 5 message 32 [0 ffffffff 11 800] ------- [17:255 -1:255 32 0] 
r 0.193509910 _30_ RTR  --- 5 message 32 [0 ffffffff 11 800] ------- [17:255 -1:255 32 0] 
r 0.193509910 _31_ RTR  --- 5 message 32 [0 ffffffff 11 800] ------- [17:255 -1:255 32 0] 
r 0.193509910 _32_ RTR  --- 5 message 32 [0 ffffffff 11 800] ------- [17:255 -1:255 32 0] 
r 0.193509910 _33_ RTR  --- 5 message 32 [0 ffffffff 11 800] ------- [17:255 -1:255 32 0] 
r 0.193509910 _34_ RTR  --- 5 message 32 [0 ffffffff 11 800] ------- [17:255 -1:255 32 0] 
r 0.193509910 _35_ RTR  --- 5 message 32 [0 ffffffff 11 800] ------- [17:255 -1:255 32 0] 
r 0.193509910 _36_ RTR  --- 5 message 32 [0 ffffffff 11 800] ------- [17:255 -1:255 32 0] 
r 0.193509910 _37_ RTR  --- 5 message 32 [0 ffffffff 11 800] ------- [17:255 -1:255 32 0] 
r 0.193509910 _38_ RTR  --- 5 message 32 [0 ffffffff 11 800] ------- [17:255 -1:255 32 0] 
r 0.193509910 _39_ RTR  --- 5 message 32 [0 ffffffff 11 800] ------- [17:255 -1:255 32 0] 
r 0.193509910 _40_ RTR  --- 5 message 32 [0 ffffffff 11 800] ------- [17:255 -1:255 32 0] 
r 0.193509910 _41_ RTR  --- 5 message 32 [0 ffffffff 11 800] ------- [17:255 -1:255 32 0] 
r 0.193509910 _42_ RTR  --- 5 message 32 [0 ffffffff 11 800] ------- [17:255 -1:255 32 0] 
r 0.193509910 _43_ RTR  --- 5 message 32 [0 ffffffff 11 800] ------- [17:255 -1:255 32 0] 
r 0.193509910 _44_ RTR  --- 5 message 32 [0 ffffffff 11 800] ------- [17:255 -1:255 32 0] 
r 0.193509910 _45_ RTR  --- 5 message 32 [0 ffffffff 11 800] ------- [17:255 -1:255 32 0] 
r 0.193509910 _46_ RTR  --- 5 message 32 [0 ffffffff 11 800] ------- [17:255 -1:255 32 0] 
r 0.193509910 _47_ RTR  --- 5 message 32 [0 ffffffff 11 800] ------- [17:255 -1:255 32 0] 
r 0.193509910 _48_ RTR  --- 5 message 32 [0 ffffffff 11 800] ------- [17:255 -1:255 32 0] 
r 0.193509910 _49_ RTR  --- 5 message 32 [0 ffffffff 11 800] ------- [17:255 -1:255 32 0] 
r 0.193510433 _5_ RTR  --- 5 message 32 [0 ffffffff 11 800] ------- [17:255 -1:255 32 0] 
s 0.225677362 _34_ RTR  --- 6 message 32 [0 0 0 0] ------- [34:255 -1:255 32 0] 
r 0.227077362 _33_ RTR  --- 6 message 32 [0 ffffffff 22 800] ------- [34:255 -1:255 32 0] 
r 0.227077362 _32_ RTR  --- 6 message 32 [0 ffffffff 22 800] ------- [34:255 -1:255 32 0] 
r 0.227077362 _31_ RTR  --- 6 message 32 [0 ffffffff 22 800] ------- [34:255 -1:255 32 0] 
r 0.227077362 _30_ RTR  --- 6 message 32 [0 ffffffff 22 800] ------- [34:255 -1:255 32 0] 
r 0.227077362 _29_ RTR  --- 6 message 32 [0 ffffffff 22 800] ------- [34:255 -1:255 32 0] 
r 0.227077362 _28_ RTR  --- 6 message 32 [0 ffffffff 22 800] ------- [34:255 -1:255 32 0] 
r 0.227077362 _27_ RTR  --- 6 message 32 [0 ffffffff 22 800] ------- [34:255 -1:255 32 0] 
r 0.227077362 _26_ RTR  --- 6 message 32 [0 ffffffff 22 800] ------- [34:255 -1:255 32 0] 
r 0.227077362 _25_ RTR  --- 6 message 32 [0 ffffffff 22 800] ------- [34:255 -1:255 32 0] 
r 0.227077362 _24_ RTR  --- 6 message 32 [0 ffffffff 22 800] ------- [34:255 -1:255 32 0] 
r 0.227077362 _23_ RTR  --- 6 message 32 [0 ffffffff 22 800] ------- [34:255 -1:255 32 0] 
r 0.227077362 _22_ RTR  --- 6 message 32 [0 ffffffff 22 800] ------- [34:255 -1:255 32 0] 
r 0.227077362 _21_ RTR  --- 6 message 32 [0 ffffffff 22 800] ------- [34:255 -1:255 32 0] 
r 0.227077362 _20_ RTR  --- 6 message 32 [0 ffffffff 22 800] ------- [34:255 -1:255 32 0] 
r 0.227077362 _19_ RTR  --- 6 message 32 [0 ffffffff 22 800] ------- [34:255 -1:255 32 0] 
r 0.227077362 _18_ RTR  --- 6 message 32 [0 ffffffff 22 800] ------- [34:255 -1:255 32 0] 
r 0.227077362 _17_ RTR  --- 6 message 32 [0 ffffffff 22 800] ------- [34:255 -1:255 32 0] 
r 0.227077362 _16_ RTR  --- 6 message 32 [0 ffffffff 22 800] ------- [34:255 -1:255 32 0] 
r 0.227077362 _15_ RTR  --- 6 message 32 [0 ffffffff 22 800] ------- [34:255 -1:255 32 0] 
r 0.227077362 _14_ RTR  --- 6 message 32 [0 ffffffff 22 800] ------- [34:255 -1:255 32 0] 
r 0.227077362 _13_ RTR  --- 6 message 32 [0 ffffffff 22 800] ------- [34:255 -1:255 32 0] 
r 0.227077362 _12_ RTR  --- 6 message 32 [0 ffffffff 22 800] ------- [34:255 -1:255 32 0] 
r 0.227077362 _11_ RTR  --- 6 message 32 [0 ffffffff 22 800] ------- [34:255 -1:255 32 0] 
r 0.227077362 _10_ RTR  --- 6 message 32 [0 ffffffff 22 800] ------- [34:255 -1:255 32 0] 
r 0.227077362 _9_ RTR  --- 6 message 32 [0 ffffffff 22 800] ------- [34:255 -1:255 32 0] 
r 0.227077362 _8_ RTR  --- 6 message 32 [0 ffffffff 22 800] ------- [34:255 -1:255 32 0] 
r 0.227077362 _7_ RTR  --- 6 message 32 [0 ffffffff 22 800] ------- [34:255 -1:255 32 0] 
r 0.227077362 _6_ RTR  --- 6 message 32 [0 ffffffff 22 800] ------- [34:255 -1:255 32 0] 
r 0.227077362 _35_ RTR  --- 6 message 32 [0 ffffffff 22 800] ------- [34:255 -1:255 32 0] 
r 0.227077362 _36_ RTR  --- 6 message 32 [0 ffffffff 22 800] ------- [34:255 -1:255 32 0] 
r 0.227077362 _37_ RTR  --- 6 message 32 [0 ffffffff 22 800] ------- [34:255 -1:255 32 0] 
r 0.227077362 _38_ RTR  --- 6 message 32 [0 ffffffff 22 800] ------- [34:255 -1:255 32 0] 
r 0.227077362 _39_ RTR  --- 6 message 32 [0 ffffffff 22 800] ------- [34:255 -1:255 32 0] 
r 0.227077362 _40_ RTR  --- 6 message 32 [0 ffffffff 22 800] ------- [34:255 -1:255 32 0] 
r 0.227077362 _41_ RTR  --- 6 message 32 [0 ffffffff 22 800] ------- [34:255 -1:255 32 0] 
r 0.227077362 _42_ RTR  --- 6 message 32 [0 ffffffff 22 800] ------- [34:255 -1:255 32 0] 
r 0.227077362 _43_ RTR  --- 6 message 32 [0 ffffffff 22 800] ------- [34:255 -1:255 32 0] 
r 0.227077362 _44_ RTR  --- 6 message 32 [0 ffffffff 22 800] ------- [34:255 -1:255 32 0] 
r 0.227077362 _45_ RTR  --- 6 message 32 [0 ffffffff 22 800] ------- [34:255 -1:255 32 0] 
r 0.227077362 _46_ RTR  --- 6 message 32 [0 ffffffff 22 800] ------- [34:255 -1:255 32 0] 
r 0.227077362 _47_ RTR  --- 6 message 32 [0 ffffffff 22 800] ------- [34:255 -1:255 32 0] 
r 0.227077362 _48_ RTR  --- 6 message 32 [0 ffffffff 22 800] ------- [34:255 -1:255 32 0] 
r 0.227077362 _49_ RTR  --- 6 message 32 [0 ffffffff 22 800] ------- [34:255 -1:255 32 0] 
r 0.227077885 _5_ RTR  --- 6 message 32 [0 ffffffff 22 800] ------- [34:255 -1:255 32 0] 
s 0.229923756 _40_ RTR  --- 7 message 32 [0 0 0 0] ------- [40:255 -1:255 32 0] 
r 0.231283756 _39_ RTR  --- 7 message 32 [0 ffffffff 28 800] ------- [40:255 -1:255 32 0] 
r 0.231283756 _38_ RTR  --- 7 message 32 [0 ffffffff 28 800] ------- [40:255 -1:255 32 0] 
r 0.231283756 _37_ RTR  --- 7 message 32 [0 ffffffff 28 800] ------- [40:255 -1:255 32 0] 
r 0.231283756 _36_ RTR  --- 7 message 32 [0 ffffffff 28 800] ------- [40:255 -1:255 32 0] 
r 0.231283756 _35_ RTR  --- 7 message 32 [0 ffffffff 28 800] ------- [40:255 -1:255 32 0] 
r 0.231283756 _34_ RTR  --- 7 message 32 [0 ffffffff 28 800] ------- [40:255 -1:255 32 0] 
r 0.231283756 _33_ RTR  --- 7 message 32 [0 ffffffff 28 800] ------- [40:255 -1:255 32 0] 
r 0.231283756 _32_ RTR  --- 7 message 32 [0 ffffffff 28 800] ------- [40:255 -1:255 32 0] 
r 0.231283756 _31_ RTR  --- 7 message 32 [0 ffffffff 28 800] ------- [40:255 -1:255 32 0] 
r 0.231283756 _30_ RTR  --- 7 message 32 [0 ffffffff 28 800] ------- [40:255 -1:255 32 0] 
r 0.231283756 _29_ RTR  --- 7 message 32 [0 ffffffff 28 800] ------- [40:255 -1:255 32 0] 
r 0.231283756 _28_ RTR  --- 7 message 32 [0 ffffffff 28 800] ------- [40:255 -1:255 32 0] 
r 0.231283756 _27_ RTR  --- 7 message 32 [0 ffffffff 28 800] ------- [40:255 -1:255 32 0] 
r 0.231283756 _26_ RTR  --- 7 message 32 [0 ffffffff 28 800] ------- [40:255 -1:255 32 0] 
r 0.231283756 _25_ RTR  --- 7 message 32 [0 ffffffff 28 800] ------- [40:255 -1:255 32 0] 
r 0.231283756 _24_ RTR  --- 7 message 32 [0 ffffffff 28 800] ------- [40:255 -1:255 32 0] 
r 0.231283756 _23_ RTR  --- 7 message 32 [0 ffffffff 28 800] ------- [40:255 -1:255 32 0] 
r 0.231283756 _22_ RTR  --- 7 message 32 [0 ffffffff 28 800] ------- [40:255 -1:255 32 0] 
r 0.231283756 _21_ RTR  --- 7 message 32 [0 ffffffff 28 800] ------- [40:255 -1:255 32 0] 
r 0.231283756 _20_ RTR  --- 7 message 32 [0 ffffffff 28 800] ------- [40:255 -1:255 32 0] 
r 0.231283756 _19_ RTR  --- 7 message 32 [0 ffffffff 28 800] ------- [40:255 -1:255 32 0] 
r 0.231283756 _18_ RTR  --- 7 message 32 [0 ffffffff 28 800] ------- [40:255 -1:255 32 0] 
r 0.231283756 _17_ RTR  --- 7 message 32 [0 ffffffff 28 800] ------- [40:255 -1:255 32 0] 
r 0.231283756 _16_ RTR  --- 7 message 32 [0 ffffffff 28 800] ------- [40:255 -1:255 32 0] 
r 0.231283756 _15_ RTR  --- 7 message 32 [0 ffffffff 28 800] ------- [40:255 -1:255 32 0] 
r 0.231283756 _14_ RTR  --- 7 message 32 [0 ffffffff 28 800] ------- [40:255 -1:255 32 0] 
r 0.231283756 _13_ RTR  --- 7 message 32 [0 ffffffff 28 800] ------- [40:255 -1:255 32 0] 
r 0.231283756 _12_ RTR  --- 7 message 32 [0 ffffffff 28 800] ------- [40:255 -1:255 32 0] 
r 0.231283756 _11_ RTR  --- 7 message 32 [0 ffffffff 28 800] ------- [40:255 -1:255 32 0] 
r 0.231283756 _10_ RTR  --- 7 message 32 [0 ffffffff 28 800] ------- [40:255 -1:255 32 0] 
r 0.231283756 _9_ RTR  --- 7 message 32 [0 ffffffff 28 800] ------- [40:255 -1:255 32 0] 
r 0.231283756 _8_ RTR  --- 7 message 32 [0 ffffffff 28 800] ------- [40:255 -1:255 32 0] 
r 0.231283756 _7_ RTR  --- 7 message 32 [0 ffffffff 28 800] ------- [40:255 -1:255 32 0] 
r 0.231283756 _6_ RTR  --- 7 message 32 [0 ffffffff 28 800] ------- [40:255 -1:255 32 0] 
r 0.231283756 _41_ RTR  --- 7 message 32 [0 ffffffff 28 800] ------- [40:255 -1:255 32 0] 
r 0.231283756 _42_ RTR  --- 7 message 32 [0 ffffffff 28 800] ------- [40:255 -1:255 32 0] 
r 0.231283756 _43_ RTR  --- 7 message 32 [0 ffffffff 28 800] ------- [40:255 -1:255 32 0] 
r 0.231283756 _44_ RTR  --- 7 message 32 [0 ffffffff 28 800] ------- [40:255 -1:255 32 0] 
r 0.231283756 _45_ RTR  --- 7 message 32 [0 ffffffff 28 800] ------- [40:255 -1:255 32 0] 
r 0.231283756 _46_ RTR  --- 7 message 32 [0 ffffffff 28 800] ------- [40:255 -1:255 32 0] 
r 0.231283756 _47_ RTR  --- 7 message 32 [0 ffffffff 28 800] ------- [40:255 -1:255 32 0] 
r 0.231283756 _48_ RTR  --- 7 message 32 [0 ffffffff 28 800] ------- [40:255 -1:255 32 0] 
r 0.231283756 _49_ RTR  --- 7 message 32 [0 ffffffff 28 800] ------- [40:255 -1:255 32 0] 
r 0.231284280 _5_ RTR  --- 7 message 32 [0 ffffffff 28 800] ------- [40:255 -1:255 32 0] 
s 0.233200583 _13_ RTR  --- 8 message 32 [0 0 0 0] ------- [13:255 -1:255 32 0] 
r 0.234320583 _12_ RTR  --- 8 message 32 [0 ffffffff d 800] ------- [13:255 -1:255 32 0] 
r 0.234320583 _11_ RTR  --- 8 message 32 [0 ffffffff d 800] ------- [13:255 -1:255 32 0] 
r 0.234320583 _10_ RTR  --- 8 message 32 [0 ffffffff d 800] ------- [13:255 -1:255 32 0] 
r 0.234320583 _9_ RTR  --- 8 message 32 [0 ffffffff d 800] ------- [13:255 -1:255 32 0] 
r 0.234320583 _8_ RTR  --- 8 message 32 [0 ffffffff d 800] ------- [13:255 -1:255 32 0] 
r 0.234320583 _7_ RTR  --- 8 message 32 [0 ffffffff d 800] ------- [13:255 -1:255 32 0] 
r 0.234320583 _6_ RTR  --- 8 message 32 [0 ffffffff d 800] ------- [13:255 -1:255 32 0] 
r 0.234320583 _14_ RTR  --- 8 message 32 [0 ffffffff d 800] ------- [13:255 -1:255 32 0] 
r 0.234320583 _15_ RTR  --- 8 message 32 [0 ffffffff d 800] ------- [13:255 -1:255 32 0] 
r 0.234320583 _16_ RTR  --- 8 message 32 [0 ffffffff d 800] ------- [13:255 -1:255 32 0] 
r 0.234320583 _17_ RTR  --- 8 message 32 [0 ffffffff d 800] ------- [13:255 -1:255 32 0] 
r 0.234320583 _18_ RTR  --- 8 message 32 [0 ffffffff d 800] ------- [13:255 -1:255 32 0] 
r 0.234320583 _19_ RTR  --- 8 message 32 [0 ffffffff d 800] ------- [13:255 -1:255 32 0] 
r 0.234320583 _20_ RTR  --- 8 message 32 [0 ffffffff d 800] ------- [13:255 -1:255 32 0] 
r 0.234320583 _21_ RTR  --- 8 message 32 [0 ffffffff d 800] ------- [13:255 -1:255 32 0] 
r 0.234320583 _22_ RTR  --- 8 message 32 [0 ffffffff d 800] ------- [13:255 -1:255 32 0] 
r 0.234320583 _23_ RTR  --- 8 message 32 [0 ffffffff d 800] ------- [13:255 -1:255 32 0] 
r 0.234320583 _24_ RTR  --- 8 message 32 [0 ffffffff d 800] ------- [13:255 -1:255 32 0] 
r 0.234320583 _25_ RTR  --- 8 message 32 [0 ffffffff d 800] ------- [13:255 -1:255 32 0] 
r 0.234320583 _26_ RTR  --- 8 message 32 [0 ffffffff d 800] ------- [13:255 -1:255 32 0] 
r 0.234320583 _27_ RTR  --- 8 message 32 [0 ffffffff d 800] ------- [13:255 -1:255 32 0] 
r 0.234320583 _28_ RTR  --- 8 message 32 [0 ffffffff d 800] ------- [13:255 -1:255 32 0] 
r 0.234320583 _29_ RTR  --- 8 message 32 [0 ffffffff d 800] ------- [13:255 -1:255 32 0] 
r 0.234320583 _30_ RTR  --- 8 message 32 [0 ffffffff d 800] ------- [13:255 -1:255 32 0] 
r 0.234320583 _31_ RTR  --- 8 message 32 [0 ffffffff d 800] ------- [13:255 -1:255 32 0] 
r 0.234320583 _32_ RTR  --- 8 message 32 [0 ffffffff d 800] ------- [13:255 -1:255 32 0] 
r 0.234320583 _33_ RTR  --- 8 message 32 [0 ffffffff d 800] ------- [13:255 -1:255 32 0] 
r 0.234320583 _34_ RTR  --- 8 message 32 [0 ffffffff d 800] ------- [13:255 -1:255 32 0] 
r 0.234320583 _35_ RTR  --- 8 message 32 [0 ffffffff d 800] ------- [13:255 -1:255 32 0] 
r 0.234320583 _36_ RTR  --- 8 message 32 [0 ffffffff d 800] ------- [13:255 -1:255 32 0] 
r 0.234320583 _37_ RTR  --- 8 message 32 [0 ffffffff d 800] ------- [13:255 -1:255 32 0] 
r 0.234320583 _38_ RTR  --- 8 message 32 [0 ffffffff d 800] ------- [13:255 -1:255 32 0] 
r 0.234320583 _39_ RTR  --- 8 message 32 [0 ffffffff d 800] ------- [13:255 -1:255 32 0] 
r 0.234320583 _40_ RTR  --- 8 message 32 [0 ffffffff d 800] ------- [13:255 -1:255 32 0] 
r 0.234320583 _41_ RTR  --- 8 message 32 [0 ffffffff d 800] ------- [13:255 -1:255 32 0] 
r 0.234320583 _42_ RTR  --- 8 message 32 [0 ffffffff d 800] ------- [13:255 -1:255 32 0] 
r 0.234320583 _43_ RTR  --- 8 message 32 [0 ffffffff d 800] ------- [13:255 -1:255 32 0] 
r 0.234320583 _44_ RTR  --- 8 message 32 [0 ffffffff d 800] ------- [13:255 -1:255 32 0] 
r 0.234320583 _45_ RTR  --- 8 message 32 [0 ffffffff d 800] ------- [13:255 -1:255 32 0] 
r 0.234320583 _46_ RTR  --- 8 message 32 [0 ffffffff d 800] ------- [13:255 -1:255 32 0] 
r 0.234320583 _47_ RTR  --- 8 message 32 [0 ffffffff d 800] ------- [13:255 -1:255 32 0] 
r 0.234320583 _48_ RTR  --- 8 message 32 [0 ffffffff d 800] ------- [13:255 -1:255 32 0] 
r 0.234320583 _49_ RTR  --- 8 message 32 [0 ffffffff d 800] ------- [13:255 -1:255 32 0] 
r 0.234321106 _5_ RTR  --- 8 message 32 [0 ffffffff d 800] ------- [13:255 -1:255 32 0] 
s 0.251668222 _45_ RTR  --- 9 message 32 [0 0 0 0] ------- [45:255 -1:255 32 0] 
r 0.253068222 _44_ RTR  --- 9 message 32 [0 ffffffff 2d 800] ------- [45:255 -1:255 32 0] 
r 0.253068222 _43_ RTR  --- 9 message 32 [0 ffffffff 2d 800] ------- [45:255 -1:255 32 0] 
r 0.253068222 _42_ RTR  --- 9 message 32 [0 ffffffff 2d 800] ------- [45:255 -1:255 32 0] 
r 0.253068222 _41_ RTR  --- 9 message 32 [0 ffffffff 2d 800] ------- [45:255 -1:255 32 0] 
r 0.253068222 _40_ RTR  --- 9 message 32 [0 ffffffff 2d 800] ------- [45:255 -1:255 32 0] 
r 0.253068222 _39_ RTR  --- 9 message 32 [0 ffffffff 2d 800] ------- [45:255 -1:255 32 0] 
r 0.253068222 _38_ RTR  --- 9 message 32 [0 ffffffff 2d 800] ------- [45:255 -1:255 32 0] 
r 0.253068222 _37_ RTR  --- 9 message 32 [0 ffffffff 2d 800] ------- [45:255 -1:255 32 0] 
r 0.253068222 _36_ RTR  --- 9 message 32 [0 ffffffff 2d 800] ------- [45:255 -1:255 32 0] 
r 0.253068222 _35_ RTR  --- 9 message 32 [0 ffffffff 2d 800] ------- [45:255 -1:255 32 0] 
r 0.253068222 _34_ RTR  --- 9 message 32 [0 ffffffff 2d 800] ------- [45:255 -1:255 32 0] 
r 0.253068222 _33_ RTR  --- 9 message 32 [0 ffffffff 2d 800] ------- [45:255 -1:255 32 0] 
r 0.253068222 _32_ RTR  --- 9 message 32 [0 ffffffff 2d 800] ------- [45:255 -1:255 32 0] 